<?xml version="1.0"?>
<VTKFile type="UnstructuredGrid"  version="0.1"  >
<UnstructuredGrid>
<Piece  NumberOfPoints="2601" NumberOfCells="5000">
<Points>
<DataArray  type="Float64"  NumberOfComponents="3"  format="ascii">0 0 0  0.02 0 0  0.04 0 0  0.06 0 0  0.08 0 0  0.1 0 0  0.12 0 0  0.14 0 0  0.16 0 0  0.18 0 0  0.2 0 0  0.22 0 0  0.24 0 0  0.26 0 0  0.28 0 0  0.3 0 0  0.32 0 0  0.34 0 0  0.36 0 0  0.38 0 0  0.4 0 0  0.42 0 0  0.44 0 0  0.46 0 0  0.48 0 0  0.5 0 0  0.52 0 0  0.54 0 0  0.5600000000000001 0 0  0.58 0 0  0.6 0 0  0.62 0 0  0.64 0 0  0.66 0 0  0.68 0 0  0.7 0 0  0.72 0 0  0.74 0 0  0.76 0 0  0.78 0 0  0.8 0 0  0.82 0 0  0.84 0 0  0.86 0 0  0.88 0 0  0.9 0 0  0.92 0 0  0.9399999999999999 0 0  0.96 0 0  0.98 0 0  1 0 0  0 0.02 0  0.02 0.02 0  0.04 0.02 0  0.06 0.02 0  0.08 0.02 0  0.1 0.02 0  0.12 0.02 0  0.14 0.02 0  0.16 0.02 0  0.18 0.02 0  0.2 0.02 0  0.22 0.02 0  0.24 0.02 0  0.26 0.02 0  0.28 0.02 0  0.3 0.02 0  0.32 0.02 0  0.34 0.02 0  0.36 0.02 0  0.38 0.02 0  0.4 0.02 0  0.42 0.02 0  0.44 0.02 0  0.46 0.02 0  0.48 0.02 0  0.5 0.02 0  0.52 0.02 0  0.54 0.02 0  0.5600000000000001 0.02 0  0.58 0.02 0  0.6 0.02 0  0.62 0.02 0  0.64 0.02 0  0.66 0.02 0  0.68 0.02 0  0.7 0.02 0  0.72 0.02 0  0.74 0.02 0  0.76 0.02 0  0.78 0.02 0  0.8 0.02 0  0.82 0.02 0  0.84 0.02 0  0.86 0.02 0  0.88 0.02 0  0.9 0.02 0  0.92 0.02 0  0.9399999999999999 0.02 0  0.96 0.02 0  0.98 0.02 0  1 0.02 0  0 0.04 0  0.02 0.04 0  0.04 0.04 0  0.06 0.04 0  0.08 0.04 0  0.1 0.04 0  0.12 0.04 0  0.14 0.04 0  0.16 0.04 0  0.18 0.04 0  0.2 0.04 0  0.22 0.04 0  0.24 0.04 0  0.26 0.04 0  0.28 0.04 0  0.3 0.04 0  0.32 0.04 0  0.34 0.04 0  0.36 0.04 0  0.38 0.04 0  0.4 0.04 0  0.42 0.04 0  0.44 0.04 0  0.46 0.04 0  0.48 0.04 0  0.5 0.04 0  0.52 0.04 0  0.54 0.04 0  0.5600000000000001 0.04 0  0.58 0.04 0  0.6 0.04 0  0.62 0.04 0  0.64 0.04 0  0.66 0.04 0  0.68 0.04 0  0.7 0.04 0  0.72 0.04 0  0.74 0.04 0  0.76 0.04 0  0.78 0.04 0  0.8 0.04 0  0.82 0.04 0  0.84 0.04 0  0.86 0.04 0  0.88 0.04 0  0.9 0.04 0  0.92 0.04 0  0.9399999999999999 0.04 0  0.96 0.04 0  0.98 0.04 0  1 0.04 0  0 0.06 0  0.02 0.06 0  0.04 0.06 0  0.06 0.06 0  0.08 0.06 0  0.1 0.06 0  0.12 0.06 0  0.14 0.06 0  0.16 0.06 0  0.18 0.06 0  0.2 0.06 0  0.22 0.06 0  0.24 0.06 0  0.26 0.06 0  0.28 0.06 0  0.3 0.06 0  0.32 0.06 0  0.34 0.06 0  0.36 0.06 0  0.38 0.06 0  0.4 0.06 0  0.42 0.06 0  0.44 0.06 0  0.46 0.06 0  0.48 0.06 0  0.5 0.06 0  0.52 0.06 0  0.54 0.06 0  0.5600000000000001 0.06 0  0.58 0.06 0  0.6 0.06 0  0.62 0.06 0  0.64 0.06 0  0.66 0.06 0  0.68 0.06 0  0.7 0.06 0  0.72 0.06 0  0.74 0.06 0  0.76 0.06 0  0.78 0.06 0  0.8 0.06 0  0.82 0.06 0  0.84 0.06 0  0.86 0.06 0  0.88 0.06 0  0.9 0.06 0  0.92 0.06 0  0.9399999999999999 0.06 0  0.96 0.06 0  0.98 0.06 0  1 0.06 0  0 0.08 0  0.02 0.08 0  0.04 0.08 0  0.06 0.08 0  0.08 0.08 0  0.1 0.08 0  0.12 0.08 0  0.14 0.08 0  0.16 0.08 0  0.18 0.08 0  0.2 0.08 0  0.22 0.08 0  0.24 0.08 0  0.26 0.08 0  0.28 0.08 0  0.3 0.08 0  0.32 0.08 0  0.34 0.08 0  0.36 0.08 0  0.38 0.08 0  0.4 0.08 0  0.42 0.08 0  0.44 0.08 0  0.46 0.08 0  0.48 0.08 0  0.5 0.08 0  0.52 0.08 0  0.54 0.08 0  0.5600000000000001 0.08 0  0.58 0.08 0  0.6 0.08 0  0.62 0.08 0  0.64 0.08 0  0.66 0.08 0  0.68 0.08 0  0.7 0.08 0  0.72 0.08 0  0.74 0.08 0  0.76 0.08 0  0.78 0.08 0  0.8 0.08 0  0.82 0.08 0  0.84 0.08 0  0.86 0.08 0  0.88 0.08 0  0.9 0.08 0  0.92 0.08 0  0.9399999999999999 0.08 0  0.96 0.08 0  0.98 0.08 0  1 0.08 0  0 0.1 0  0.02 0.1 0  0.04 0.1 0  0.06 0.1 0  0.08 0.1 0  0.1 0.1 0  0.12 0.1 0  0.14 0.1 0  0.16 0.1 0  0.18 0.1 0  0.2 0.1 0  0.22 0.1 0  0.24 0.1 0  0.26 0.1 0  0.28 0.1 0  0.3 0.1 0  0.32 0.1 0  0.34 0.1 0  0.36 0.1 0  0.38 0.1 0  0.4 0.1 0  0.42 0.1 0  0.44 0.1 0  0.46 0.1 0  0.48 0.1 0  0.5 0.1 0  0.52 0.1 0  0.54 0.1 0  0.5600000000000001 0.1 0  0.58 0.1 0  0.6 0.1 0  0.62 0.1 0  0.64 0.1 0  0.66 0.1 0  0.68 0.1 0  0.7 0.1 0  0.72 0.1 0  0.74 0.1 0  0.76 0.1 0  0.78 0.1 0  0.8 0.1 0  0.82 0.1 0  0.84 0.1 0  0.86 0.1 0  0.88 0.1 0  0.9 0.1 0  0.92 0.1 0  0.9399999999999999 0.1 0  0.96 0.1 0  0.98 0.1 0  1 0.1 0  0 0.12 0  0.02 0.12 0  0.04 0.12 0  0.06 0.12 0  0.08 0.12 0  0.1 0.12 0  0.12 0.12 0  0.14 0.12 0  0.16 0.12 0  0.18 0.12 0  0.2 0.12 0  0.22 0.12 0  0.24 0.12 0  0.26 0.12 0  0.28 0.12 0  0.3 0.12 0  0.32 0.12 0  0.34 0.12 0  0.36 0.12 0  0.38 0.12 0  0.4 0.12 0  0.42 0.12 0  0.44 0.12 0  0.46 0.12 0  0.48 0.12 0  0.5 0.12 0  0.52 0.12 0  0.54 0.12 0  0.5600000000000001 0.12 0  0.58 0.12 0  0.6 0.12 0  0.62 0.12 0  0.64 0.12 0  0.66 0.12 0  0.68 0.12 0  0.7 0.12 0  0.72 0.12 0  0.74 0.12 0  0.76 0.12 0  0.78 0.12 0  0.8 0.12 0  0.82 0.12 0  0.84 0.12 0  0.86 0.12 0  0.88 0.12 0  0.9 0.12 0  0.92 0.12 0  0.9399999999999999 0.12 0  0.96 0.12 0  0.98 0.12 0  1 0.12 0  0 0.14 0  0.02 0.14 0  0.04 0.14 0  0.06 0.14 0  0.08 0.14 0  0.1 0.14 0  0.12 0.14 0  0.14 0.14 0  0.16 0.14 0  0.18 0.14 0  0.2 0.14 0  0.22 0.14 0  0.24 0.14 0  0.26 0.14 0  0.28 0.14 0  0.3 0.14 0  0.32 0.14 0  0.34 0.14 0  0.36 0.14 0  0.38 0.14 0  0.4 0.14 0  0.42 0.14 0  0.44 0.14 0  0.46 0.14 0  0.48 0.14 0  0.5 0.14 0  0.52 0.14 0  0.54 0.14 0  0.5600000000000001 0.14 0  0.58 0.14 0  0.6 0.14 0  0.62 0.14 0  0.64 0.14 0  0.66 0.14 0  0.68 0.14 0  0.7 0.14 0  0.72 0.14 0  0.74 0.14 0  0.76 0.14 0  0.78 0.14 0  0.8 0.14 0  0.82 0.14 0  0.84 0.14 0  0.86 0.14 0  0.88 0.14 0  0.9 0.14 0  0.92 0.14 0  0.9399999999999999 0.14 0  0.96 0.14 0  0.98 0.14 0  1 0.14 0  0 0.16 0  0.02 0.16 0  0.04 0.16 0  0.06 0.16 0  0.08 0.16 0  0.1 0.16 0  0.12 0.16 0  0.14 0.16 0  0.16 0.16 0  0.18 0.16 0  0.2 0.16 0  0.22 0.16 0  0.24 0.16 0  0.26 0.16 0  0.28 0.16 0  0.3 0.16 0  0.32 0.16 0  0.34 0.16 0  0.36 0.16 0  0.38 0.16 0  0.4 0.16 0  0.42 0.16 0  0.44 0.16 0  0.46 0.16 0  0.48 0.16 0  0.5 0.16 0  0.52 0.16 0  0.54 0.16 0  0.5600000000000001 0.16 0  0.58 0.16 0  0.6 0.16 0  0.62 0.16 0  0.64 0.16 0  0.66 0.16 0  0.68 0.16 0  0.7 0.16 0  0.72 0.16 0  0.74 0.16 0  0.76 0.16 0  0.78 0.16 0  0.8 0.16 0  0.82 0.16 0  0.84 0.16 0  0.86 0.16 0  0.88 0.16 0  0.9 0.16 0  0.92 0.16 0  0.9399999999999999 0.16 0  0.96 0.16 0  0.98 0.16 0  1 0.16 0  0 0.18 0  0.02 0.18 0  0.04 0.18 0  0.06 0.18 0  0.08 0.18 0  0.1 0.18 0  0.12 0.18 0  0.14 0.18 0  0.16 0.18 0  0.18 0.18 0  0.2 0.18 0  0.22 0.18 0  0.24 0.18 0  0.26 0.18 0  0.28 0.18 0  0.3 0.18 0  0.32 0.18 0  0.34 0.18 0  0.36 0.18 0  0.38 0.18 0  0.4 0.18 0  0.42 0.18 0  0.44 0.18 0  0.46 0.18 0  0.48 0.18 0  0.5 0.18 0  0.52 0.18 0  0.54 0.18 0  0.5600000000000001 0.18 0  0.58 0.18 0  0.6 0.18 0  0.62 0.18 0  0.64 0.18 0  0.66 0.18 0  0.68 0.18 0  0.7 0.18 0  0.72 0.18 0  0.74 0.18 0  0.76 0.18 0  0.78 0.18 0  0.8 0.18 0  0.82 0.18 0  0.84 0.18 0  0.86 0.18 0  0.88 0.18 0  0.9 0.18 0  0.92 0.18 0  0.9399999999999999 0.18 0  0.96 0.18 0  0.98 0.18 0  1 0.18 0  0 0.2 0  0.02 0.2 0  0.04 0.2 0  0.06 0.2 0  0.08 0.2 0  0.1 0.2 0  0.12 0.2 0  0.14 0.2 0  0.16 0.2 0  0.18 0.2 0  0.2 0.2 0  0.22 0.2 0  0.24 0.2 0  0.26 0.2 0  0.28 0.2 0  0.3 0.2 0  0.32 0.2 0  0.34 0.2 0  0.36 0.2 0  0.38 0.2 0  0.4 0.2 0  0.42 0.2 0  0.44 0.2 0  0.46 0.2 0  0.48 0.2 0  0.5 0.2 0  0.52 0.2 0  0.54 0.2 0  0.5600000000000001 0.2 0  0.58 0.2 0  0.6 0.2 0  0.62 0.2 0  0.64 0.2 0  0.66 0.2 0  0.68 0.2 0  0.7 0.2 0  0.72 0.2 0  0.74 0.2 0  0.76 0.2 0  0.78 0.2 0  0.8 0.2 0  0.82 0.2 0  0.84 0.2 0  0.86 0.2 0  0.88 0.2 0  0.9 0.2 0  0.92 0.2 0  0.9399999999999999 0.2 0  0.96 0.2 0  0.98 0.2 0  1 0.2 0  0 0.22 0  0.02 0.22 0  0.04 0.22 0  0.06 0.22 0  0.08 0.22 0  0.1 0.22 0  0.12 0.22 0  0.14 0.22 0  0.16 0.22 0  0.18 0.22 0  0.2 0.22 0  0.22 0.22 0  0.24 0.22 0  0.26 0.22 0  0.28 0.22 0  0.3 0.22 0  0.32 0.22 0  0.34 0.22 0  0.36 0.22 0  0.38 0.22 0  0.4 0.22 0  0.42 0.22 0  0.44 0.22 0  0.46 0.22 0  0.48 0.22 0  0.5 0.22 0  0.52 0.22 0  0.54 0.22 0  0.5600000000000001 0.22 0  0.58 0.22 0  0.6 0.22 0  0.62 0.22 0  0.64 0.22 0  0.66 0.22 0  0.68 0.22 0  0.7 0.22 0  0.72 0.22 0  0.74 0.22 0  0.76 0.22 0  0.78 0.22 0  0.8 0.22 0  0.82 0.22 0  0.84 0.22 0  0.86 0.22 0  0.88 0.22 0  0.9 0.22 0  0.92 0.22 0  0.9399999999999999 0.22 0  0.96 0.22 0  0.98 0.22 0  1 0.22 0  0 0.24 0  0.02 0.24 0  0.04 0.24 0  0.06 0.24 0  0.08 0.24 0  0.1 0.24 0  0.12 0.24 0  0.14 0.24 0  0.16 0.24 0  0.18 0.24 0  0.2 0.24 0  0.22 0.24 0  0.24 0.24 0  0.26 0.24 0  0.28 0.24 0  0.3 0.24 0  0.32 0.24 0  0.34 0.24 0  0.36 0.24 0  0.38 0.24 0  0.4 0.24 0  0.42 0.24 0  0.44 0.24 0  0.46 0.24 0  0.48 0.24 0  0.5 0.24 0  0.52 0.24 0  0.54 0.24 0  0.5600000000000001 0.24 0  0.58 0.24 0  0.6 0.24 0  0.62 0.24 0  0.64 0.24 0  0.66 0.24 0  0.68 0.24 0  0.7 0.24 0  0.72 0.24 0  0.74 0.24 0  0.76 0.24 0  0.78 0.24 0  0.8 0.24 0  0.82 0.24 0  0.84 0.24 0  0.86 0.24 0  0.88 0.24 0  0.9 0.24 0  0.92 0.24 0  0.9399999999999999 0.24 0  0.96 0.24 0  0.98 0.24 0  1 0.24 0  0 0.26 0  0.02 0.26 0  0.04 0.26 0  0.06 0.26 0  0.08 0.26 0  0.1 0.26 0  0.12 0.26 0  0.14 0.26 0  0.16 0.26 0  0.18 0.26 0  0.2 0.26 0  0.22 0.26 0  0.24 0.26 0  0.26 0.26 0  0.28 0.26 0  0.3 0.26 0  0.32 0.26 0  0.34 0.26 0  0.36 0.26 0  0.38 0.26 0  0.4 0.26 0  0.42 0.26 0  0.44 0.26 0  0.46 0.26 0  0.48 0.26 0  0.5 0.26 0  0.52 0.26 0  0.54 0.26 0  0.5600000000000001 0.26 0  0.58 0.26 0  0.6 0.26 0  0.62 0.26 0  0.64 0.26 0  0.66 0.26 0  0.68 0.26 0  0.7 0.26 0  0.72 0.26 0  0.74 0.26 0  0.76 0.26 0  0.78 0.26 0  0.8 0.26 0  0.82 0.26 0  0.84 0.26 0  0.86 0.26 0  0.88 0.26 0  0.9 0.26 0  0.92 0.26 0  0.9399999999999999 0.26 0  0.96 0.26 0  0.98 0.26 0  1 0.26 0  0 0.28 0  0.02 0.28 0  0.04 0.28 0  0.06 0.28 0  0.08 0.28 0  0.1 0.28 0  0.12 0.28 0  0.14 0.28 0  0.16 0.28 0  0.18 0.28 0  0.2 0.28 0  0.22 0.28 0  0.24 0.28 0  0.26 0.28 0  0.28 0.28 0  0.3 0.28 0  0.32 0.28 0  0.34 0.28 0  0.36 0.28 0  0.38 0.28 0  0.4 0.28 0  0.42 0.28 0  0.44 0.28 0  0.46 0.28 0  0.48 0.28 0  0.5 0.28 0  0.52 0.28 0  0.54 0.28 0  0.5600000000000001 0.28 0  0.58 0.28 0  0.6 0.28 0  0.62 0.28 0  0.64 0.28 0  0.66 0.28 0  0.68 0.28 0  0.7 0.28 0  0.72 0.28 0  0.74 0.28 0  0.76 0.28 0  0.78 0.28 0  0.8 0.28 0  0.82 0.28 0  0.84 0.28 0  0.86 0.28
[...]
<PointData  Scalars="f_5"> 
<DataArray  type="Float64"  Name="f_5"  format="ascii">0.0000000000000000e+00  0.0000000000000000e+00  0.0000000000000000e+00  0.0000000000000000e+00  0.0000000000000000e+00  0.0000000000000000e+00  0.0000000000000000e+00  0.0000000000000000e+00  0.0000000000000000e+00  0.0000000000000000e+00  0.0000000000000000e+00  0.0000000000000000e+00  0.0000000000000000e+00  0.0000000000000000e+00  0.0000000000000000e+00  0.0000000000000000e+00  0.0000000000000000e+00  0.0000000000000000e+00  0.0000000000000000e+00  0.0000000000000000e+00  0.0000000000000000e+00  0.0000000000000000e+00  0.0000000000000000e+00  0.0000000000000000e+00  0.0000000000000000e+00  0.0000000000000000e+00  0.0000000000000000e+00  0.0000000000000000e+00  0.0000000000000000e+00  0.0000000000000000e+00  0.0000000000000000e+00  0.0000000000000000e+00  0.0000000000000000e+00  0.0000000000000000e+00  0.0000000000000000e+00  0.0000000000000000e+00  0.0000000000000000e+00  0.0000000000000000e+00  0.0000000000000000e+00  0.0000000000000000e+00  0.0000000000000000e+00  0.0000000000000000e+00  0.0000000000000000e+00  0.0000000000000000e+00  0.0000000000000000e+00  0.0000000000000000e+00  0.0000000000000000e+00  0.0000000000000000e+00  0.0000000000000000e+00  0.0000000000000000e+00  0.0000000000000000e+00  0.0000000000000000e+00  4.5101368769900020e-05  9.0109404206466733e-05  1.3494913647745798e-04  1.7954232275281391e-04  2.2380887677917480e-04  2.6766722941477306e-04  3.1103433487648783e-04  3.5382554494525894e-04  3.9595442804321937e-04  4.3733256294094019e-04  4.7786931996244799e-04  5.1747163590298037e-04  5.5604378602844826e-04  5.9348715522994041e-04  6.2970000979790898e-04  6.6457727100037987e-04  6.9801029153722870e-04  7.2988663592135747e-04  7.6008986586812745e-04  7.8849933183512298e-04  8.1498997193248503e-04  8.3943211951143231e-04  8.6169132082927508e-04  8.8162816427851903e-04  8.9909812275140591e-04  9.1395141078561373e-04  9.2603285819806364e-04  9.3518180195808110e-04  9.4123199807481545e-04  9.4401155527307191e-04  9.4334289220289230e-04  9.3904271986777884e-04  9.3092205086100816e-04  9.1878623686580236e-04  9.0243503570014807e-04  8.8166270896760735e-04  8.5625815110784416e-04  8.2600505031950452e-04  7.9068208144466266e-04  7.5006313044150051e-04  7.0391754949666939e-04  6.5201044107076808e-04  5.9410296807683755e-04  5.2995268561273020e-04  4.5931388634935880e-04  3.8193794457140238e-04  2.9757362655335508e-04  2.0596728741517650e-04  1.0686272893354034e-04  0.0000000000000000e+00  0.0000000000000000e+00  9.0109404206466706e-05  1.8004044491184230e-04  2.6963815228388472e-04  3.5874461108795615e-04  4.4719928828244551e-04  5.3483903933676318e-04  6.2149789847925252e-04  7.0700675019466142e-04  7.9119293762001171e-04  8.7387983709142660e-04  9.5488641433920428e-04  1.0340267709543589e-03  1.1111096863142057e-03  1.1859381584267375e-03  1.2583089462946491e-03  1.3280121159997146e-03  1.3948305925605108e-03  1.4585397196134069e-03  1.5189068290493619e-03  1.5756908228732123e-03  1.6286417697167186e-03  1.6775005186173023e-03  1.7219983328604820e-03  1.7618565468667286e-03  1.7967862492748240e-03  1.8264879955263184e-03  1.8506515533818924e-03  1.8689556848927782e-03  1.8810679684014417e-03  1.8866446641479136e-03  1.8853306270040515e-03  1.8767592697405476e-03  1.8605525800437842e-03  1.8363211942353866e-03  1.8036645303005157e-03  1.7621709823957702e-03  1.7114181784775979e-03  1.6509733020588448e-03  1.5803934783509789e-03  1.4992262241580029e-03  1.4070099598077420e-03  1.3032745800428981e-03  1.1875420789571854e-03  1.0593272213580574e-03  9.1813824854663595e-04  7.6347759871622919e-04  5.9484260756017420e-04  4.1172612750714379e-04  2.1361696165231818e-04  0.0000000000000000e+00  0.0000000000000000e+00  1.3494913647745790e-04  2.6963815228388450e-04  4.0383174999161580e-04  5.3729201436601367e-04  6.6977795925922097e-04  8.0104507450391488e-04  9.3084480284243089e-04  1.0589239530674557e-03  1.1850240684840726e-03  1.3088807667988832e-03  1.4302230626819172e-03  1.5487726805943787e-03  1.6642433631806112e-03  1.7763401792014874e-03  1.8847588342875672e-03  1.9891849874766518e-03  2.0892935764250256e-03  2.1847481542557308e-03  2.2752002411760347e-03  2.3602886942249782e-03  2.4396390987772077e-03  2.5128631857139093e-03  2.5795582784619549e-03  2.6393067743864232e-03  2.6916756652881745e-03  2.7362161019962761e-03  2.7724630082437440e-03  2.7999347491630302e-03  2.8181328598235926e-03  2.8265418392464225e-03  2.8246290152581866e-03  2.8118444853799090e-03  2.7876211386715275e-03  2.7513747630647772e-03  2.7025042422040902e-03  2.6403918451706927e-03  2.5644036116812658e-03  2.4738898344206306e-03  2.3681856390757395e-03  2.2466116613651240e-03  2.1084748188667313e-03  1.9530691736692302e-03  1.7796768796842814e-03  1.5875692056490111e-03  1.3760076210962311e-03  1.1442449275200388e-03  8.9152641079730081e-04  6.1709098673423961e-04  3.2017232350192178e-04  0.0000000000000000e+00  0.0000000000000000e+00  1.7954232275281377e-04  3.5874461108795599e-04  5.3729201436601367e-04  7.1486707045859523e-04  8.9114879321784376e-04  1.0658118299105776e-03  1.2385256186524334e-03  1.4089535240819915e-03  1.5767519497832739e-03  1.7415694322714512e-03  1.9030457223285352e-03  2.0608108588939609e-03  2.2144842399457079e-03  2.3636736942443675e-03  2.5079745575108136e-03  2.6469687565276357e-03  2.7802239047405417e-03  2.9072924131417909e-03  3.0277106205074027e-03  3.1409979474067910e-03  3.2466560787865607e-03  3.3441681803325074e-03  3.4329981542203375e-03  3.5125899402621693e-03  3.5823668688285113e-03  3.6417310722602013e-03  3.6900629617671122e-03  3.7267207770253414e-03  3.7510402158168108e-03  3.7623341510893307e-03  3.7598924427356966e-03  3.7429818511827096e-03  3.7108460595309733e-03  3.6627058104814389e-03  3.5977591636137084e-03  3.5151818777349789e-03  3.4141279219894742e-03  3.2937301182000070e-03  3.1531009154995588e-03  2.9913332966933562e-03  2.8075018139581609e-03  2.6006637494163437e-03  2.3698603937950331e-03  2.1141184337908096e-03  1.8324514360025734e-03  1.5238614128037281e-03  1.1873404547080824e-03  8.2187241846392570e-04  4.2643467895446264e-04  0.0000000000000000e+00  0.0000000000000000e+00  2.2380887677917461e-04  4.4719928828244529e-04  6.6977795925922076e-04  8.9114879321784354e-04  1.1109116465763144e-03  1.3286611666014517e-03  1.5439856511080667e-03  1.7564659081581351e-03  1.9656741076289146e-03  2.1711726235084448e-03  2.3725128688001440e-03  2.5692341260405561e-03  2.7608623767972243e-03  2.9469091336527926e-03  3.1268702783170204e-03  3.3002249097158686e-03  3.4664342062010515e-03  3.6249403063968225e-03  3.7751652136383249e-03  3.9165097294415552e-03  4.0483524219630720e-03  4.1700486359425529e-03  4.2809295511580525e-03  4.3803012969467394e-03  4.4674441308368328e-03  4.5416116897822366e-03  4.6020303228724961e-03  4.6478985146877439e-03  4.6783864086623120e-03  4.6926354398917252e-03  4.6897580867458913e-03  4.6688377504175895e-03  4.6289287711215512e-03  4.5690565890496304e-03  4.4882180573676596e-03  4.3853819134993715e-03  4.2594894136749788e-03  4.1094551342236961e-03  3.9341679413624642e-03  3.7324921292839161e-03  3.5032687241895481e-03  3.2453169495762829e-03  2.9574358456220307e-03  2.6384060330499541e-03  2.2869916096528563e-03  1.9019421663175526e-03  1.4819949101007072e-03  1.0258768867922510e-03  5.3230730718533618e-04  0.0000000000000000e+00  0.0000000000000000e+00  2.6766722941477290e-04  5.3483903933676286e-04  8.0104507450391444e-04  1.0658118299105772e-03  1.3286611666014515e-03  1.5891088721441816e-03  1.8466632443535792e-03  2.1008236831469010e-03  2.3510792823991373e-03  2.5969074186666004e-03  2.8377723366563722e-03  3.0731237330042290e-03  3.3023953408831742e-03  3.5250035185858896e-03  3.7403458457219404e-03  3.9477997311511007e-03  4.1467210372843032e-03  4.3364427259394555e-03  4.5162735315408507e-03  4.6854966680913651e-03  4.8433685770149530e-03  4.9891177236499147e-03  5.1219434508559024e-03  5.2410148988632412e-03  5.3454700011231768e-03  5.4344145664927419e-03  5.5069214585862260e-03  5.5620298835241579e-03  5.5987447975862992e-03  5.6160364464026965e-03  5.6128400472718930e-03  5.5880556259535379e-03  5.5405480188213440e-03  5.4691470505612086e-03  5.3726478966412581e-03  5.2498116385532026e-03  5.0993660183207062e-03  4.9200063969906671e-03  4.7103969197760179e-03  4.4691718882236293e-03  4.1949373372731644e-03  3.8862728124105395e-03  3.5417333394001838e-03  3.1598515764674519e-03  2.7391401365746788e-03  2.2780940660462540e-03  1.7751934659182738e-03  1.2289062447523673e-03  6.3769099632796425e-04  0.0000000000000000e+00  0.0000000000000000e+00  3.1103433487648756e-04  6.2149789847925220e-04  9.3084480284243046e-04  1.2385256186524332e-03  1.5439856511080664e-03  1.8466632443535785e-03  2.1459881043484996e-03  2.4413796310100867e-03  2.7322452534874688e-03  3.0179787654357826e-03  3.2979586594878508e-03  3.5715464617701478e-03  3.8380850684786895e-03  4.0968970874189839e-03  4.3472831881670856e-03  4.5885204652156225e-03  4.8198608191789404e-03  5.0405293618691806e-03  5.2497228518275929e-03  5.4466081677014338e-03  5.6303208276887954e-03  5.7999635641195809e-03  5.9546049630857384e-03  6.0932781798604787e-03  6.2149797416332243e-03  6.3186684498126632e-03  6.4032643947888358e-03  6.4676480965696961e-03  6.5106597850893635e-03  6.5310988341941989e-03  6.5277233633187761e-03  6.4992500206366554e-03  6.4443539609824133e-03  6.3616690310659375e-03  6.2497881734162987e-03  6.1072640590848076e-03  5.9326099573973083e-03  5.7243008489755816e-03  5.4807747858606429e-03  5.2004344998947535e-03  4.8816492576022729e-03  4.5227569567258593e-03  4.1220664564340483e-03  3.6778601301783250e-03  3.1883966274654858e-03  2.6519138287078477e-03  2.0666319761070973e-03  1.4307569633043140e-03  7.4248376670748607e-04  0.0000000000000000e+00  0.0000000000000000e+00  3.5382554494525856e-04  7.0700675019466099e-04  1.0589239530674553e-03  1.4089535240819910e-03  1.7564659081581347e-03  2.1008236831469005e-03  2.4413796310100867e-03  2.7774748163908111e-03  3.1084366684382011e-03  3.4335770634345438e-03  3.7521904074224333e-03  4.0635517194431564e-03  4.3669147171757827e-03  4.6615099077775939e-03  4.9465426876451318e-03  5.2211914556986958e-03  5.4846057456799770e-03  5.7359043838640655e-03  5.9741736795322336e-03  6.1984656565312948e-03  6.4077963352525543e-03  6.6011440753872101e-03  6.7774479908403211e-03  6.9356064491930417e-03  7.0744756690699108e-03  7.1928684296691881e-03  7.2895529075200933e-03  7.3632516562097614e-03  7.4126407453405912e-03  7.4363490752992912e-03  7.4329578845056879e-03  7.4010004656252307e-03  7.3389621067390482e-03  7.2452802726371592e-03  7.1183450402065168e-03  6.9564998003057562e-03  6.7580422365414693e-03  6.5212255889870356e-03  6.2442602081295507e-03  5.9253154012258056e-03  5.5625215698486422e-03  5.1539726337899100e-03  4.6977287327651532e-03  4.1918191936796464e-03  3.6342457477344225e-03  3.0229859785458916e-03  2.3559969798312833e-03  1.6312191989836385e-03  8.4658044053099893e-04  0.0000000000000000e+00  0.0000000000000000e+00  3.9595442804321899e-04  7.9119293762001117e-04  1.1850240684840722e-03  1.5767519497832734e-03  1.9656741076289133e-03  2.3510792823991378e-03  2.7322452534874696e-03  3.1084366684382024e-03  3.4789028737733162e-03  3.8428757457750970e-03  4.1995675206575132e-03  4.5481686247375967e-03  4.8878455063370218e-03  5.2177384722038077e-03  5.5369595322704874e-03  5.8445902575873839e-03  6.1396796573115406e-03  6.4212420817082077e-03  6.6882551592393150e-03  6.9396577769722922e-03  7.1743481147362531e-03  7.3911817446697115e-03  7.5889698090286263e-03  7.7664772903347935e-03  7.9224213891175219e-03  8.0554700256074158e-03  8.1642404827459159e-03  8.2472982087420012e-03  8.3031557980972823e-03  8.3302721704900124e-03  8.3270519671127807e-03  8.2918451839528590e-03  8.2229470610447226e-03  8.1185982458704710e-03  7.9769852478001890e-03  7.7962411987235608e-03  7.5744469328091046e-03  7.3096323956348720e-03  6.9997783897780509e-03  6.6428186603636110e-03  6.2366423201099157e-03  5.7790966091533190e-03  5.2679899804903441e-03  4.7010954973740159e-03  4.0761545245799986e-03  3.3908806912433505e-03  2.6429640990218370e-03  1.8300757456012901e-03  9.4987212976620401e-04  0.0000000000000000e+00  0.0000000000000000e+00  4.3733256294093976e-04  8.7387983709142606e-04  1.3088807667988825e-03  1.7415694322714505e-03  2.1711726235084440e-03  2.5969074186666012e-03  3.0179787654357844e-03  3.4335770634345464e-03  3.8428757457750983e-03  4.2450288585683489e-03  4.6391686380282630e-03  5.0244030858460353e-03  5.3998135445642321e-03  5.7644522757634648e-03  6.1173400449789682e-03  6.4574637184021426e-03  6.7837738776039304e-03  7.0951824597512460e-03  7.3905604320778553e-03  7.6687355107156411e-03  7.9284899353837882e-03  8.1685583128600879e-03  8.3876255436030334e-03  8.5843248473333172e-03  8.7572359047912943e-03  8.9048831342303687e-03  9.0257341224474884e-03  9.1181982312483773e-03  9.1806254011498507e-03  9.2113051747840305e-03  9.2084659628359055e-03  9.1702745753620297e-03  9.0948360409498427e-03  8.9801937353331529e-03  8.8243298397335402e-03  8.6251661473125268e-03  8.3805652336698538e-03  8.0883320042986293e-03  7.7462156283175064e-03  7.3519118636740047e-03  6.9030657744074183e-03  6.3972748355564371e-03  5.8320924160022193e-03  5.2050316240794042e-03  4.5135694953015396e-03  3.7551514961590149e-03  2.9271963127447532e-03  2.0271008879668129e-03  1.0522456662658598e-03  0.0000000000000000e+00  0.0000000000000000e+00  4.7786931996244739e-04  9.5488641433920363e-04  1.4302230626819161e-03  1.9030457223285348e-03  2.3725128688001436e-03  2.8377723366563726e-03  3.2979586594878508e-03  3.7521904074224333e-03  4.1995675206575140e-03  4.6391686380282638e-03  5.0700484203744893e-03  5.4912348693873835e-03  5.9017266436437402e-03  6.3004903746401815e-03  6.6864579868131085e-03  7.0585240267716162e-03  7.4155430082841227e-03  7.7563267809483225e-03  8.0796419319385509e-03  8.3842072317619597e-03  8.6686911365565014e-03  8.9317093611171496e-03  9.1718225385234234e-03  9.3875339839374784e-03  9.5772875818173012e-03  9.7394658174085984e-03  9.8723879748986183e-03  9.9743085259875013e-03  1.0043415733803055e-02  1.0077830497993684e-02  1.0075605467418106e-02  1.0034724447042844e-02  9.9531021253927935e-03  9.8285841481120951e-03  9.6589475618216267e-03  9.4419016504564864e-03  9.1750891835924858e-03  8.8560880929056101e-03  8.4824135888526778e-03  8.0515207249408204e-03  7.5608074116226449e-03  7.0076178759961227e-03  6.3892465572160228e-03  5.7029424209731729e-03  4.9459136697210734e-03  4.1153328186797544e-03  3.2083421011646763e-03  2.2220591605886801e-03  1.1535829806637557e-03  0.0000000000000000e+00  0.0000000000000000e+00  5.1747163590297994e-04  1.0340267709543583e-03  1.5487726805943779e-03  2.0608108588939600e-03  2.5692341260405553e-03  3.0731237330042281e-03  3.5715464617701474e-03  4.0635517194431564e-03  4.5481686247375985e-03  5.0244030858460362e-03  5.4912348693873835e-03  5.9476146610186065e-03  6.3924611193164954e-03  6.8246579256737456e-03  7.2430508341950056e-03  7.6464447269204193e-03  8.0336006811459592e-03  8.4032330571527040e-03  8.7540066162993986e-03  9.0845336811704782e-03  9.3933713512964531e-03  9.6790187898619165e-03  9.9399145987693702e-03  1.0174434301409201e-02  1.0380887954465163e-02  1.0557517912021435e-02  1.0702496767084220e-02  1.0813925497333308e-02  1.0889831843414527e-02  1.0928168949302867e-02  1.0926814295133326e-02  1.0883568953331766e-02  1.0796157198799743e-02  1.0662226503234140e-02  1.0479347942317719e-02  1.0245017042432653e-02  9.9566550906713160e-03  9.6116109282119722e-03  9.2071632425801062e-03  8.7405233689472964e-03  8.2088386044795528e-03  7.6091960329227196e-03  6.9386268492259099e-03  6.1941111662095292e-03  5.3725832772631545e-03  4.4709373410075932e-03  3.4860334459788467e-03  2.4147040058928094e-03  1.2537604291338149e-03  0.0000000000000000e+00  0.0000000000000000e+00  5.5604378602844794e-04  1.1111096863142048e-03  1.6642433631806103e-03  2.2144842399457057e-03  2.7608623767972221e-03  3.3023953408831720e-03  3.8380850684786860e-03  4.3669147171757792e-03  4.8878455063370201e-03  5.3998135445642312e-03  5.9017266436437394e-03  6.3924611193164945e-03  6.8708585802632269e-03  7.3357227078766282e-03  7.7858160307060862e-03  8.2198566989024301e-03  8.6365152655599273e-03  9.0344114835504714e-03  9.4121111282691895e-03  9.7681228586574357e-03  1.0100895130930253e-02  1.0408813181598022e-02  1.0690196098616274e-02  1.0943294001798130e-02  1.1166285355946050e-02  1.1357274442461091e-02  1.1514289017416832e-02  1.1635278186180310e-02  1.1718110526552208e-02  1.1760572494003262e-02  1.1760367143813892e-02  1.1715113205684483e-02  1.1622344546573604e-02  1.1479510057040338e-02  1.1283973995115796e-02  1.1033016819618418e-02  1.0723836541781483e-02  1.0353550620024188e-02  9.9191984176418124e-03  9.4177442371220395e-03  8.8460809377588785e-03  8.2010341353226223e-03  7.4793669738887044e-03  6.6777854507092133e-03  5.7929442654477544e-03  4.8214531554419543e-03  3.7598836691836381e-03  2.6047763212032281e-03  1.3526480633120268e-03  0.0000000000000000e+00  0.0000000000000000e+00  5.9348715522993987e-04  1.1859381584267365e-03  1.7763401792014858e-03  2.3636736942443649e-03  2.9469091336527891e-03  3.5250035185858852e-03  4.0968970874189770e-03  4.6615099077775887e-03  5.2177384722038042e-03  5.7644522757634613e-03  6.3004903746401780e-03  6.8246579256737413e-03  7.3357227078766256e-03  7.8324116281967854e-03  8.3134072151836106e-03  8.7773441057566251e-03  9.2228055319741823e-03  9.6483198165533933e-03  1.0052356887902798e-02  1.0433324827593154e-02  1.0789566465502427e-02  1.1119356040316978e-02  1.1420895945632906e-02  1.1692313584554323e-02  1.1931658358393150e-02  1.2136898817793378e-02  1.2305920007275048e-02  1.2436521036752222e-02  1.2526412915944075e-02  1.2573216689677419e-02  1.2574461913767843e-02  1.2527585512351998e-02  1.2429931058103178e-02  1.2278748516571141e-02  1.2071194494820038e-02  1.1804333032477070e-02  1.1475136970145348e-02  1.1080489925794811e-02  1.0617188904174244e-02  1.0081947557473511e-02  9.4714001074446344e-03  8.7821059300535274e-03  8.0105547936303971e-03  7.1531727306242019e-03  6.2063285117100282e-03  5.1663406794621681e-03  4.0294850874438501e-03  2.7920028797577714e-03  1.4501088362443978e-03  0.0000000000000000e+00  0.0000000000000000e+00  6.2970000979790843e-04  1.2583089462946475e-03  1.8847588342875651e-03  2.5079745575108110e-03  3.1268702783170165e-03  3.7403458457219356e-03  4.3472831881670804e-03  4.9465426876451266e-03  5.5369595322704830e-03  6.1173400449789622e-03  6.6864579868131041e-03  7.2430508341950004e-03  7.7858160307060819e-03  8.3134072151836054e-03  8.8244304294082705e-03  9.3174403102996017e-03  9.7909362733601089e-03  1.0243358696119455e-02  1.0673085112528806e-02  1.1078426431643288e-02  1.1457623196502655e-02  1.1808841901867881e-02  1.2130171392377384e-02  1.2419619365726439e-02  1.2675109008612188e-02  1.2894475796377550e-02  1.3075464490471094e-02  1.3215726370942784e-02  1.3312816744127787e-02  1.3364192768327825e-02  1.3367211642561388e-02  1.3319129205185824e-02  1.3217098990249303e-02  1.3058171789654349e-02  1.2839295768449480e-02  1.2557317178657809e-02  1.2208981713861360e-02  1.1790936542168800e-02  1.1299733049120174e-02  1.0731830314486459e-02  1.0083599337825953e-02  9.3513280171497858e-03  8.5312268732884895e-03  7.6194354997805008e-03  6.6120297046393210e-03  5.5050292965861799e-03  4.2944064547051517e-03  2.9760946074729429e-03  1.5459977352411248e-03  0.0000000000000000e+00  0.0000000000000000e+00  6.6457727100037922e-04  1.3280121159997135e-03  1.9891849874766501e-03  2.6469687565276331e-03  3.3002249097158652e-03  3.9477997311510946e-03  4.5885204652156165e-03  5.2211914556986897e-03  5.8445902575873778e-03  6.4574637184021356e-03  7.0585240267716110e-03  7.6464447269204141e-03  8.2198566989024214e-0